

1105 atoms
3 atom types 

   0.0000000000   21.2301103783 xlo xhi
   0.0000000000   21.4332387956 ylo yhi
   0.0000000000   70.0000000000 zlo zhi

Masses

     1   12.01100000
     2   15.99900000
     3   1.00800000

Atoms # atomic

     1      1    15.8862234777    14.3508879189    24.452704018600002
     2      1    15.8587683761    12.9520895116    24.4099610932
     3      1    18.3953187676    12.7811724913    23.7447834242
     4      1    19.7357085566    12.0676879105    23.8886201141
     5      1    -0.1639227162    9.9468319209    23.9906064263
     6      1    19.760690969    10.6324072873    24.2112738973
     7      1    -0.2296308075    8.5661994427    23.3665682112
     8      1    0.9985759307    7.9208889877    22.9275387203
     9      1    3.593191454    7.8157309535    23.5835429625
     10      1    2.3114353598    8.5529000025    23.3939289696
     11      1    6.0702126696    12.1529401272    22.401255477
     12      1    4.9087813765    12.9544226158    22.8129619721
     13      1    0.9907854525    14.9115377746    23.3359588111
     14      1    -0.2341753013    14.2361797083    24.0242356676
     15      1    -0.1301965381    1.3903522917    23.0805977123
     16      1    0.9138949856    2.1422245981    22.3474061672
     17      1    3.3063909538    20.6996555746    21.5367652409
     18      1    2.1941502002    21.4141476308    22.1828493971
     19      1    4.5121270946    1.5278034064    20.7147634761
     20      1    5.8281667431    2.2672463059    20.8513674847
     21      1    5.8449243389    3.746040768    21.213376666
     22      1    4.6144318465    4.443001555    21.6225637439
     23      1    3.3080979495    3.7803922897    21.4397922179
     24      1    2.157355589    4.4643609999    22.0228692647
     25      1    2.2853261763    5.7025207019    22.7953034877
     26      1    0.9950836979    6.4192843276    22.9052516774
     27      1    19.9489997632    3.5418602683    23.5925352185
     28      1    -0.2092806911    4.3242762174    22.9854367699
     29      1    16.2664437076    1.3821075733    24.854127490899998
     30      1    16.3710625696    21.3560605178    24.9946896631
     31      1    13.8100497999    21.444109631    24.5707969115
     32      1    15.0829910221    20.6720649662    24.603967890299998
     33      1    9.8864717292    19.2937315999    23.8589772887
     34      1    8.9574238834    18.6451890159    22.9236166821
     35      1    11.5260846873    1.3427587058    23.4665545118
     36      1    12.5998149145    2.1917796015    24.079756922199998
     37      1    13.6705443981    1.3955486855    24.9577508508
     38      1    14.9710572551    2.1159959211    25.1261486414
     39      1    15.9273018243    4.1507783799    23.8827450024
     40      1    14.8362361921    3.5265894324    24.676100409
     41      1    13.5669945861    4.2801067627    24.995642238000002
     42      1    12.4618779576    3.675763791    24.3542814832
     43      1    8.023351449    2.2550718328    21.9490100415
     44      1    9.0930688477    1.5040150917    22.703226397599998
     45      1    16.3379616281    9.909437848    25.2783114931
     46      1    16.3379565946    8.3759458481    24.8544983449
     47      1    12.7695852754    10.805619159    23.7941349828
     48      1    13.8510966015    10.0569043659    24.4560270003
     49      1    11.2372687451    21.4471977199    24.158973563300002
     50      1    12.4714627253    20.7165298861    24.7010581967
     51      1    9.9436725051    20.7836197773    23.8520898806
     52      1    8.9217120805    21.4971352025    22.9825768085
     53      1    9.5520895825    4.3401796159    21.9334291239
     54      1    10.5053595428    3.6151507251    22.7674685592
     55      1    11.7775668532    4.2784973571    23.1906328519
     56      1    11.9523210496    5.7256376763    22.9628841211
     57      1    16.5447958779    18.4887438815    25.4087491366
     58      1    17.613994251    19.221355686    24.630962181
     59      1    14.6893090967    19.2445319887    24.0620055566
     60      1    13.4754887073    18.5294920681    24.5120763609
     61      1    17.1936970778    10.6315846557    24.1808837968
     62      1    17.0703286815    12.1091812246    24.0183795951
     63      1    18.5136660417    9.9980186975    23.8108015548
     64      1    18.50099231    8.5165358299    23.7827338759
     65      1    18.399958695    14.253056438    23.682534246
     66      1    17.1291340493    15.0476562785    23.7804183515
     67      1    19.6557631989    14.9578108327    23.8499870994
     68      1    19.6846215607    16.4283219435    23.5083782481
     69      1    7.2914704763    5.7413447727    21.8221430335
     70      1    6.1865634434    6.2352653924    22.8183813639
     71      1    4.755540461    5.5660828481    22.6080590226
     72      1    3.6029303814    6.3088774052    23.0856752375
     73      1    1.0954477518    10.7015676809    23.8749042388
     74      1    2.3346014332    10.0733851646    23.421964468
     75      1    0.8865725526    12.0335899736    24.4919279011
     76      1    2.6268691586    13.0391209166    23.7902383346
     77      1    3.8126411061    12.2001358977    23.5890245722
     78      1    3.6952060772    10.6893607407    23.5194166094
     79      1    4.8175162196    9.894917843    22.9135425979
     80      1    5.9647791748    10.6482239021    22.2778583134
     81      1    7.0103698619    21.505067552    21.1630947109
     82      1    7.999408099    20.7655086041    22.0779552808
     83      1    11.0476032117    18.5771425583    24.5117148018
     84      1    11.1860260933    17.1325663094    24.3907909787
     85      1    14.9104490122    16.5716374264    25.1624670799
     86      1    14.8173042195    15.1171217762    25.3413702791
     87      1    18.7487709676    1.3410986455    24.077687846
     88      1    17.4652854944    1.9802547475    24.0881907641
     89      1    17.2019133024    6.4036510509    23.5968111763
     90      1    15.9051210592    5.6375474476    23.7756175531
     91      1    19.7945982596    6.3246976346    23.5806202763
     92      1    19.8174055152    7.7336305695    23.8256457491
     93      1    15.2237239253    7.5247944214    25.0983342107
     94      1    13.4453670785    8.6959384368    24.9043374113
     95      1    2.0798655908    13.9026003325    22.9318327468
     96      1    3.616692399    14.8053909965    21.6327549672
     97      1    1.2808281558    20.6426770471    23.0909418555
     98      1    0.0850707232    21.3634546322    23.5070721605
     99      1    12.5489146526    12.1630224447    24.2750667544
     100      1    13.5774498668    12.7798284452    25.13082605
     101      1    14.90215638    10.646199164    25.4042388153
     102      1    15.0229644348    12.2609317822    25.447531757
     103      1    11.1092038519    6.4992761656    21.8572208454
     104      1    9.7775608562    5.7065956709    21.281031817
     105      1    12.4173126611    6.4224859679    24.3088437677
     106      1    13.6302133306    5.7607605458    25.1149768884
     107      1    17.1417715067    3.3350619544    23.3323532221
     108      1    18.5672505278    4.1191374695    23.115591572
     109      1    18.4871112199    5.4996221962    23.8585600585
     110      1    -0.4014889787    5.818555106    22.6340454098
     111      1    20.1156408146    2.0800400639    23.9876572725
     112      1    0.7793561209    3.6706017203    22.0761528581
     113      1    3.1625123383    2.2561607557    21.0578034693
     114      1    2.2851331499    1.5639473789    22.342605641
     115      1    19.9245873481    20.6502333411    23.5872506128
     116      1    18.9328784756    21.3492396161    24.6418296425
     117      1    18.8977095371    18.443090643    24.5172334383
     118      1    18.4166145171    17.2918380922    23.4976049487
     119      1    17.0742137049    16.5530021508    23.7848480193
     120      1    16.4119247937    17.0341388304    25.0801627756
     121      1    -0.3560392884    17.1348220765    22.7385408051
     122      1    0.9428207548    16.1116848302    22.3581256122
     123      1    3.390069316    16.3060511597    21.2313716822
     124      1    2.3672317569    16.8969744114    22.4114108425
     125      1    12.138600633    15.0574916293    25.201414901299998
     126      1    13.4681432417    14.2891895989    25.5928371475
     127      1    4.9838103265    8.5456269235    23.6257240327
     128      1    6.206086102    7.7470588149    23.059036590399998
     129      1    8.3664048276    3.5852448585    21.2425319427
     130      1    10.411073242    2.0366580527    22.5993332916
     131      1    5.8745103457    20.6706635271    20.4136383537
     132      1    4.4082270982    21.3632613189    20.4975188853
     133      1    3.4738045567    19.4215825955    22.3621393821
     134      1    4.8826859105    18.2690492341    20.3670284275
     135      1    5.9375763324    15.0896941635    22.179445781200002
     136      1    7.1849981126    14.2693405355    21.7093430181
     137      1    11.0764519598    14.1863351389    24.309418084
     138      1    11.7888954036    13.081231613    23.3914568714
     139      1    11.5114167023    10.0400903921    23.4310629984
     140      1    10.929274012    10.7877395978    22.2806907756
     141      1    13.5993337767    17.1070279827    24.612506942899998
     142      1    17.5947567871    20.5737159637    24.6146760173
     143      1    12.4418943463    16.3919023948    24.5887623401
     144      1    20.1195474286    19.1979565915    23.8666688771
     145      1    9.2037568702    17.1524624797    22.7133479814
     146      1    4.7180532299    17.008118432    21.0192155071
     147      1    7.0975352809    17.1576761842    21.4834044113
     148      1    10.2664863074    16.4633157991    23.384270942
     149      1    8.2566360288    16.5133787322    22.0142705736
     150      1    5.8768197322    16.3706561232    21.4033789059
     151      1    -0.1192517966    18.5293184103    23.2335734463
     152      1    17.3331151516    7.7683707456    24.1646185038
     153      1    2.2750673781    18.4705736185    22.3786112281
     154      1    7.014704057    18.5929680746    21.3108185829
     155      1    10.3422827454    15.0802886073    23.3299764183
     156      1    8.3866117195    15.0823649218    21.8692725567
     157      1    1.1740083637    19.1122144538    22.7812544388
     158      1    -0.258207503    12.808013792    24.2722741437
     159      1    14.8553661073    6.34585319    24.5842102246
     160      1    8.0458002639    19.4042010021    21.9928333172
     161      1    5.9213636295    19.2040855591    20.7139249944
     162      1    9.5081736611    14.3982604625    22.3600898367
     163      1    4.7323330145    14.3034946112    22.1624131854
     164      1    10.7080171346    12.2480901357    22.5999069462
     165      1    12.6913678006    7.9163330697    24.0452397213
     166      1    9.6022941087    12.9538586877    22.1359495459
     167      1    7.1846264027    12.8584164838    21.7248520668
     168      1    11.8000631189    8.5253448581    23.092190422999998
     169      1    8.3772346687    12.1728560933    21.8374112936
     170      1    9.6658889679    10.0604985771    22.0536620551
     171      1    10.8731994261    7.8796685113    22.3592309048
     172      1    7.0163557261    1.4958242533    21.1651228582
     173      1    8.4322238432    10.7426976075    21.9999711354
     174      1    9.6995662401    8.6708721921    22.0839598504
     175      1    7.2540507886    10.0300996747    22.1996438524
     176      1    8.53932189    7.8636593339    21.9170408632
     177      1    7.2884048993    8.5457638828    22.4824866041
     178      1    8.5005574073    6.4435304275    21.6978113237
     179      1    7.1380805309    4.465380344    21.4488680723
     180      1    12.3619533053    19.2754949621    24.6091599524
     181      2    15.0659707688    13.6614367924    23.3820597714
     182      2    16.6534034056    0.6524102657    26.2047028991
     183      2    17.0854320066    10.0562536984    26.5029511993
     184      2    14.4769176613    21.1754322912    23.2708370276
     185      2    19.221931397    12.2928720848    22.5616509257
     186      2    14.1575359747    1.7168741537    26.2405880588
     187      2    14.8100084306    3.4859022599    23.2383901146
     188      2    0.8532752245    15.1403081697    24.7163742249
     189      2    13.9823565349    10.3925814713    23.0368016446
     190      2    8.6489789591    18.8349703808    24.3800073795
     191      2    20.446482763    10.0269656413    25.2804645466
     192      2    12.7327795182    1.6257822338    22.646435797
     193      2    12.3919412939    3.7821911484    25.7830631279
     194      2    2.0023356086    20.885091048    20.852830578
     195      2    -0.0393734098    1.4424274303    21.6273838712
     196      2    -0.2433540653    4.2757623055    24.4374400979
     197      2    6.1326500581    12.8696749115    23.6962559818
     198      2    0.2132954145    8.6003484535    21.9679672132
     199      2    8.1357422758    2.2066508238    23.4332009755
     200      2    5.1575214676    2.1400517271    19.5331376078
     201      2    2.4865922837    4.6785990117    20.6459274789
     202      2    2.7285442437    8.0895218298    24.724509796
     203      2    1.6108506326    5.8003411963    24.0573963307
     204      2    5.1534215072    4.7281182995    20.288381074
     205      2    4.2045314042    5.3314999814    23.9549389536
     206      2    6.6427723521    5.6566172584    24.073486871900002
     207      2    12.7790384592    4.7798465552    22.2522461198
     208      2    9.4316308583    4.3278122134    23.391630204400002
     209      2    8.7965091732    21.4214576748    24.439426534
     210      2    11.5808254571    21.4931313932    25.562067957300002
     211      2    15.257735347    18.8181552954    23.0418722184
     212      2    15.7911190122    19.0113577137    26.2570537829
     213      2    19.724292565    15.9786447017    24.8460258965
     214      2    2.007344053    12.7118141982    24.9825223003
     215      2    4.06734875    11.3288957967    24.7551459192
     216      2    4.9062221682    9.9686579741    21.4952822792
     217      2    1.5242987457    10.7162914694    22.4558701426
     218      2    18.3659986801    9.2436323509    22.5071870117
     219      2    17.6279875521    14.5908355833    22.5576416696
     220      2    16.6675278016    11.157982675    23.0054477252
     221      2    10.6641742156    17.713080461    25.5904159596
     222      2    7.6951287817    22.2017118965    20.1505773574
     223      2    1.0615777359    21.0509683717    24.4769923516
     224      2    16.2966622838    6.1239312334    22.4716952687
     225      2    17.9866049971    1.2230200195    22.9370900233
     226      2    2.514415052    13.9626540798    21.6273325015
     227      2    20.1470815633    6.8535505877    24.8907099873
     228      2    14.2368947959    8.1640949782    25.90980918
     229      2    14.9706323201    15.8232004255    26.5223173807
     230      2    12.4186250687    12.166856285    25.732836156
     231      2    15.4521652442    12.5814808295    26.6915760499
     232      2    2.4021592523    2.0896999736    19.8448154141
     233      2    2.7943771982    1.8705930132    23.6061749404
     234      2    14.4248729144    10.5329511661    26.717107895399998
     235      2    7.3421910992    8.2083284948    23.8604873619
     236      2    5.156288784    8.7611286454    25.0059951883
     237      2    3.0173587621    16.6195019537    23.6724518806
     238      2    19.3026702254    18.2572684304    25.858961478
     239      2    17.2281504177    16.3934922949    26.0672744893
     240      2    13.4521997829    14.110381398    27.0423473677
     241      2    11.3541839735    15.3659268737    26.415207956899998
     242      2    16.2588653293    16.6641241358    22.5877651458
     243      2    18.2226870963    18.0189337283    22.2356043026
     244      2    -0.8448551684    17.3596424722    21.382849919999998
     245      2    0.6656882671    15.575529377    21.0482206932
     246      2    2.7525000504    16.3584055087    19.8951578988
     247      2    11.9708805777    6.892878521    20.7510682541
     248      2    9.8736224373    5.6216330363    19.8515485712
     249      2    11.3334735714    6.3619256391    25.181002863499998
     250      2    13.3840964317    6.0682032809    26.4887615928
     251      2    16.7386165922    3.09313128    21.9673618222
     252      2    18.7139818976    4.3320617791    21.6916525104
     253      2    19.3645273556    21.1655737959    25.9761748061
     254      2    19.4247833277    20.7321507893    22.2980369977
     255      2    18.3483242017    5.2383071391    25.279352568
     256      2    20.5851252833    1.9308852506    25.266260787500002
     257      2    -0.7824340589    6.0494015994    21.3179809866
     258      2    0.2860445053    3.6990591096    20.7376568932
     259      2    8.6086667411    3.323302752    19.8622253795
     260      2    10.7162780494    1.7750999606    21.2327446522
     261      2    3.9392248873    21.1981953098    19.1995756948
     262      2    6.3106097186    20.625080316    19.0126285593
     263      2    6.1686594086    15.4975737745    23.5360253562
     264      2    8.2548906694    15.2562058515    25.587211885400002
     265      2    3.9084098817    18.6809114221    19.5548944651
     266      2    4.3211663895    19.3731219103    23.2441507014
     267      2    10.1910058291    13.4930878423    25.0394779782
     268      2    12.6199632179    13.5811272626    22.3840353761
     269      2    11.7583182776    10.9489937689    21.090048903
     270      2    10.5773500897    10.2896108558    24.5602806531
     271      3    14.6568973714    11.4617037577    27.1735206844
     272      3    16.4062347829    10.1458171016    27.2170940654
     273      3    3.7080522666    1.5114192358    23.6118510207
     274      3    1.618820136    2.6647489591    19.8320859376
     275      3    7.4176785486    6.0683791345    24.5906723583
     276      3    6.0931619343    8.974865077    25.0866308856
     277      3    2.7917891796    17.2156867816    24.4641303705
     278      3    18.9068790314    17.422363361    26.1884258165
     279      3    17.0251749512    16.8472902351    27.0495955611
     280      3    14.2280354478    13.5881628834    27.2873409522
     281      3    11.9510320112    15.248367896    27.1583765196
     282      3    15.4645388176    17.2627042825    22.723588069
     283      3    17.288874608    17.744812268    22.0124858194
     284      3    19.383926197    17.5890854853    21.3353855714
     285      3    -0.2206564251    16.0353519431    20.8226857193
     286      3    1.7880940883    16.0909878485    19.9126319516
     287      3    12.0434415294    6.1630776976    20.1005392269
     288      3    9.2808310553    4.8470451529    19.624595903
     289      3    11.0410768245    7.1689917348    25.747995585399998
     290      3    12.4679536512    5.6708541386    26.667450416
     291      3    15.8160142481    2.7463557304    21.9538882941
     292      3    18.0699475973    3.8217011127    21.1601375995
     293      3    19.6887256786    0.5800873447    26.3593413484
     294      3    18.7379736247    20.0677139466    22.2101991092
     295      3    19.1520334564    5.2591088893    25.7719196483
     296      3    0.0694129123    2.4986513742    25.475593390900002
     297      3    19.5228876348    5.5673807019    21.2330028986
     298      3    0.1229216384    4.6343996209    20.4856688305
     299      3    9.1135386625    2.4782009937    19.7408314622
     300      3    11.6847914629    1.4990312646    21.2109702519
     301      3    3.0425974366    21.6395288648    19.2042073073
     302      3    5.9436649217    21.4065871261    18.6496017884
     303      3    7.629755492    14.8636717399    24.969670882
     304      3    7.8716931121    15.3188663486    26.513121473200002
     305      3    3.2141867351    17.9930628313    19.3375184103
     306      3    4.9090499353    16.6791864922    25.762434076799998
     307      3    9.6421344335    14.2058973657    25.4452773845
     308      3    13.5637282811    13.4186665821    22.4853662941
     309      3    12.6793245649    10.6383342435    21.1999456269
     310      3    10.6858674277    9.5184033537    25.1932028575
     311      2    10.1252552583    0.1261172006    33.9555720765
     312      3    10.5140501641    22.2317026414    33.2961789311
     313      3    10.7399042793    0.3099919295    34.7154756951
     314      2    5.3592536003    13.9195666769    39.455993172999996
     315      3    4.8869291087    14.0949381549    40.3077459366
     316      3    5.9423576391    13.1640389626    39.6157796623
     317      2    21.5714182867    -0.4216940975    42.2021128269
     318      3    22.1160405802    -0.0707195589    41.4855334851
     319      3    21.4520389716    -1.3728411565    42.0077147982
     320      2    15.0583055513    10.5554590202    35.0892294932
     321      3    15.2232748105    10.1766859172    34.219144870099996
     322      3    14.1103521948    10.6565852128    35.1439210021
     323      2    1.4625671054    9.3113011024    35.9609113222
     324      3    2.1486524288    8.693945287    35.8373585597
     325      3    0.6729950874    8.8022223785    35.60576599
     326      2    13.5639147985    10.3809116662    41.965440435299996
     327      3    13.3021397199    11.275949355    42.3546312753
     328      3    14.4907181812    10.1439016748    42.275859838100004
     329      2    16.4104080124    17.4103353144    37.3381189822
     330      3    15.8670052913    16.7931161278    37.8980881484
     331      3    15.8936325753    18.2799523812    37.311606679
     332      2    8.7887305559    9.1341980144    32.4500918923
     333      3    9.557067897    8.7177180704    32.9010290183
     334      3    8.025256019    8.8359914083    33.0117819454
     335      2    6.5724823151    6.7181795582    34.1968932069
     336      3    5.9046745818    6.2231394127    33.6736522901
     337      3    6.0619790283    7.4209222158    34.8199506467
     338      2    14.3747482432    19.0842295563    43.015876401599996
     339      3    14.0538894148    19.8030872317    43.605054273899995
     340      3    13.5655890049    18.6284133637    42.5540569933
     341      2    16.1373671243    9.6968140324    37.3730615869
     342      3    15.7981600843    10.4404891068    37.9268907391
     343      3    15.6058511077    9.8269173917    36.5532779379
     344      2    14.6405771837    17.0213944879    39.4508177584
     345      3    14.4146810231    16.1198235049    39.6602696589
     346      3    15.188605349    17.3313127594    40.1440763042
     347      2    3.8484784537    2.7004473835    27.740963010599998
     348      3    3.4079988619    1.8205234147    27.790321037600002
     349      3    3.2080249409    3.2965679027    27.386019742000002
     350      2    19.860210313    16.9258333405    28.6062512286
     351      3    20.5420133179    17.5514484716    28.335535391500002
     352      3    19.9126990594    16.1262043375    27.9938242706
     353      2    16.4188928229    10.0175891332    29.048729028
     354      3    17.3040550976    9.9743638197    29.6229983852
     355      3    15.9797179792    9.1820251558    29.3099702859
     356      2    1.7122683378    7.0155837209    29.1011596564
     357      3    2.3963052996    7.1749833495    29.9070860301
     358      3    2.4046503246    6.6397036485    28.534370287599998
     359      2    14.4701676093    0.734846112    32.152034783
     360      3    14.413504724    -0.2708330621    32.1026068928
     361      3    13.5590396961    1.1375081833    32.2516825014
     362      2    10.9581990296    13.0921038868    38.848833269400004
     363      3    10.2468707772    12.8671246382    38.231459262499996
     364      3    11.7636153989    13.0174818578    38.2979208606
     365      2    23.5121464733    3.4188751257    30.308245989299998
     366      3    23.827562464    3.34174759    31.1996375344
     367      3    24.2033461671    3.1310912488    29.7774509445
     368      2    6.8833051939    11.8025566266    39.798997822000004
     369      3    7.8179895182    11.7507308112    40.190646120699995
     370      3    6.4206610307    11.1453005741    40.434113912499996
     371      2    -2.9743491996    12.4599328974    27.0521545304
     372      3    -3.9471302771    12.5670796387    26.9296162685
     373      3    -2.7974580169    11.4822422319    27.0552126708
     374      2    3.641790881    17.7711240658    36.72079188
     375      3    24.5228399679    17.041053515    36.0822364467
     376      3    25.6208896595    18.2275935031    36.2789352292
     377      2    9.3151816291    5.680926487    39.56369498
     378      3    9.7137807425    4.7588658713    39.3661185523
     379      3    9.6012814847    6.2559512203    38.8275257006
     380      2    2.5983708929    -1.4411630328    34.4242347393
     381      3    3.2802943675    -0.8918681563    34.726214986
     382      3    23.2758894941    -0.8526474816    33.8806064601
     383      2    5.3504124514    9.8898643347    41.340997760899995
     384      3    5.1166973001    10.0597241903    42.291286013000004
     385      3    5.7464694848    8.978594214    41.2806423142
     386      2    20.3835788266    21.0077857724    35.58480322
     387      3    20.4999234118    0.2055581161    36.317611493
     388      3    19.4609635385    -0.484080816    35.4281598404
     389      2    17.9999947495    7.3363437477    28.3176796365
     390      3    18.1374406906    8.2075057874    27.914619261600002
     391      3    17.0538964306    7.1106727128    28.2042724811
     392      2    3.8639383009    6.4049302417    27.3789655715
     393      3    3.8620749233    7.3794568242    27.2178831417
     394      3    3.5294980197    5.9335831517    26.6029724922
     395      2    -0.78973971    14.1269199388    27.4069318646
     396      3    0.1107550443    13.950236068    27.0721093387
     397      3    -1.4261638158    13.5896511387    26.8360279662
     398      2    5.40282968    1.1298822778    23.5943133906
     399      3    5.5403700372    23.1984507037    24.3464952192
     400      3    5.6916049269    0.2613657753    23.963190245
     401      2    7.9633639487    16.9133391143    42.5684189981
     402      3    7.3037052809    16.8855178141    41.8450755987
     403      3    8.0692346497    -3.5557626205    42.7699056321
     404      2    -2.318505635    12.5401284034    36.4737881921
     405      3    -2.5311405945    11.7353584845    35.8150015277
     406      3    -1.3928746564    -8.6046210535    36.2788411067
     407      2    9.5517052158    20.4861368633    37.578351998100004
     408      3    10.4169279072    20.5537945941    37.0937589953
     409      3    9.2484197121    19.5501952872    37.554740804800005
     410      2    0.7918297829    13.5668072254    41.8869183619
     411      3    0.5745568033    14.1180585242    42.7148949371
     412      3    0.4889284661    14.1224116509    41.105876636000005
     413      2    21.0667259128    20.8185239783    32.8709335569
     414      3    20.7774864914    21.6183463917    32.4393296614
     415      3    20.6177877563    -0.5186576834    33.732432712299996
     416      2    13.1918287075    25.0794053765    29.3762480921
     417      3    13.1409991811    25.4852388562    28.4765559263
     418      3    13.8628277319    24.3245966353    29.1750633393
     419      2    28.0987711045    6.9280888335    39.6299308303
     420      3    27.2758369652    6.4348354692    39.6924787177
     421      3    28.8605465983    6.3335829455    39.8146340281
     422      2    12.0268472986    0.3492687798    36.1533425935
     423      3    12.5445648313    0.987711054    36.6887298323
     424      3    12.6667264373    -0.3203437494    35.8920619823
     425      2    11.2063240028    15.4924508031    30.130109296500002
     426      3    12.1795317228    15.5811875166    30.1156927555
     427      3    10.9093661326    16.2682693724    29.608379798599998
     428      2    21.2244585922    5.4830389306    31.1746821214
     429      3    21.769175094    6.2411605232    31.616852728799998
     430      3    0.3055829326    5.5409051153    30.2551814885
     431      2    1.0393655358    11.720769436    38.1369215957
     432      3    1.2611343871    12.6665637002    37.975551078799995
     433      3    1.3466326467    11.1222094162    37.4228896654
     434      2    19.6534216409    23.138708657    28.1054096718
     435      3    20.089834616    23.1877298463    28.9952762091
     436      3    18.7473212701    1.9355186164    28.2951649785
     437      2    5.7250602673    16.4111403257    38.156279625500005
     438      3    5.5535771885    15.5020535276    38.621835869600005
     439      3    4.8295094941    16.725605241    37.7945636409
     440      2    4.8396678097    -0.7598567541    32.194112651699996
     441      3    5.6823892153    -0.3763771411    32.1234775955
     442      3    5.0157865268    -1.4018982121    32.8982146934
     443      2    10.873030431    18.1482741517    39.556176980800004
     444      3    11.1854481242    18.1156811662    38.6693023396
     445      3    10.3252485397    17.3752199391    39.513444507399996
     446      2    2.912089704    -1.7803942366    42.865537615899996
     447      3    3.5643789982    -1.2820391383    42.3641352945
     448      3    2.1603802169    -1.1646922443    42.8982562118
     449      2    7.2528871331    4.6098775023    41.766975879